file 85471353 1611237435                                        
version 2
run General-0-20210121-10:56:59-23812
attr configname General
attr datetime 20210121-10:56:59
attr experiment General
attr inifile omnetpp.ini
attr iterationvars ""
attr iterationvarsf ""
attr measurement ""
attr network Network
attr processid 23812
attr repetition 0
attr replication #0
attr resultdir results
attr runnumber 0
attr seedset 0

vector 0 Network.cloud.loadBalancer queueLength:vector ETV
attr interpolationmode none
attr title "Queue length, vector"
attr unit ms
vector 1 Network.cloud.loadBalancer busy:vector ETV
attr interpolationmode none
attr title "Busy, vector"
attr unit ms
vector 2 Network.cloud.server[0] queueLength:vector ETV
attr interpolationmode none
attr title "Queue length, vector"
attr unit ms
vector 3 Network.cloud.server[0] busy:vector ETV
attr interpolationmode none
attr title "Busy, vector"
attr unit ms
vector 4 Network.cloud.server[1] queueLength:vector ETV
attr interpolationmode none
attr title "Queue length, vector"
attr unit ms
vector 5 Network.cloud.server[1] busy:vector ETV
attr interpolationmode none
attr title "Busy, vector"
attr unit ms
vector 6 Network.cloud.server[2] queueLength:vector ETV
attr interpolationmode none
attr title "Queue length, vector"
attr unit ms
vector 7 Network.cloud.server[2] busy:vector ETV
attr interpolationmode none
attr title "Busy, vector"
attr unit ms
vector 8 Network.cloud.server[3] queueLength:vector ETV
attr interpolationmode none
attr title "Queue length, vector"
attr unit ms
vector 9 Network.cloud.server[3] busy:vector ETV
attr interpolationmode none
attr title "Busy, vector"
attr unit ms
vector 10 Network.cloud.server[4] queueLength:vector ETV
attr interpolationmode none
attr title "Queue length, vector"
attr unit ms
vector 11 Network.cloud.server[4] busy:vector ETV
attr interpolationmode none
attr title "Busy, vector"
attr unit ms
vector 12 Network.cloud.server[5] queueLength:vector ETV
attr interpolationmode none
attr title "Queue length, vector"
attr unit ms
vector 13 Network.cloud.server[5] busy:vector ETV
attr interpolationmode none
attr title "Busy, vector"
attr unit ms
vector 14 Network.cloud.loadBalancer dropped:vector ETV
attr interpolationmode none
attr title "Dropped jobs, vector"
attr unit ms
vector 15 Network.cloud.server[0] dropped:vector ETV
attr interpolationmode none
attr title "Dropped jobs, vector"
attr unit ms
vector 16 Network.cloud.server[1] dropped:vector ETV
attr interpolationmode none
attr title "Dropped jobs, vector"
attr unit ms
vector 17 Network.cloud.server[2] dropped:vector ETV
attr interpolationmode none
attr title "Dropped jobs, vector"
attr unit ms
vector 18 Network.cloud.server[3] dropped:vector ETV
attr interpolationmode none
attr title "Dropped jobs, vector"
attr unit ms
vector 19 Network.cloud.server[4] dropped:vector ETV
attr interpolationmode none
attr title "Dropped jobs, vector"
attr unit ms
vector 20 Network.cloud.server[5] dropped:vector ETV
attr interpolationmode none
attr title "Dropped jobs, vector"
attr unit ms
1	3093 591741 0 68844 0 163.113 32768 0 1 16384 16384
0	594834 614192 0 137726 0 326.751 32768 0 12 30990 88830
14	1209026 646950 2 137727 0.055 326.751 32768 0 0 0 0
1	1855976 636945 68846 137731 163.115 326.763 32768 0 1 16384 16384
1	2492921 651739 137733 206462 326.765 489.871 32768 0 1 16384 16384
0	3144660 651734 137727 275218 326.751 654.208 32768 0 13 31160 94330
14	3796394 684467 137738 275222 326.778 654.215 32768 0 0 0 0
1	4480861 651686 206463 275222 489.876 654.215 32768 0 1 16384 16384
1	5132547 651792 275223 344048 654.217 819.04 32768 0 1 16384 16384
0	5784339 651707 275222 412829 654.215 983.335 32768 0 14 31706 97928
14	6436046 684428 275227 412838 654.232 983.349 32768 0 0 0 0
1	7120474 651676 344061 412838 819.079 983.349 32768 0 1 16384 16384
1	7772150 681019 412839 481647 983.359 1147.418 32768 0 1 16384 16384
0	8453169 682765 412838 550450 983.349 1313.06 32768 0 12 31287 91685
14	9135934 715514 412842 550452 983.393 1313.061 32768 0 0 0 0
1	9851448 684560 481648 550454 1147.419 1313.065 32768 0 1 16384 16384
1	10536008 684577 550457 619260 1313.073 1476.146 32768 0 1 16384 16384
0	11220585 684479 550452 687963 1313.061 1639.949 32768 0 17 31422 95404
14	11905064 717216 550458 687966 1313.073 1639.952 32768 0 0 0 0
1	12622280 684410 619267 687967 1476.154 1639.953 32768 0 1 16384 16384
1	13306690 684474 687971 756796 1639.968 1804.304 32768 0 1 16384 16384
0	13991164 536608 687966 795724 1639.952 1897.325 25689 0 14 24077 67893
1	14527772 388671 756798 795725 1804.305 1897.336 18609 0 1 9304 9304
2	14916443 668483 0 795703 0 1897.27 31589 0 20 630664 12595800
3	15584926 251520 0 795563 0 1896.964 12474 0 1 6237 6237
4	15836446 668564 0 795708 0 1897.292 31589 0 20 630632 12594500
5	16505010 254824 0 795483 0 1896.751 12638 0 1 6319 6319
6	16759834 668518 0 795712 0 1897.298 31589 0 20 630486 12589108
7	17428352 257089 0 795704 0 1897.286 12758 0 1 6379 6379
8	17685441 668583 0 795716 0 1897.305 31589 0 20 630537 12591411
9	18354024 255631 0 795722 0 1897.323 12686 0 1 6343 6343
10	18609655 700111 0 795721 0 1897.318 31589 0 20 630553 12591703
11	19309766 263819 0 795412 0 1896.616 12466 0 1 6233 6233
12	19573585 700057 0 795726 0 1897.336 31589 0 20 630663 12595955
13	20273642 258409 0 795528 0 1896.859 12218 0 1 6109 6109
14	20532051 562265 687970 795724 1639.956 1897.325 25688 0 0 0 0
15	21094316 668486 4 795703 0.057 1897.27 31588 0 1 25331 25331
16	21762802 668567 14 795708 0.09 1897.292 31588 0 1 25249 25249
17	22431369 668522 18 795712 0.092 1897.298 31588 0 1 25189 25189
18	23099891 668588 22 795716 0.1 1897.305 31588 0 1 25227 25227
19	23768479 668526 24 795721 0.104 1897.318 31588 0 1 25335 25335
20	24437005 668471 28 795726 0.117 1897.336 31588 0 1 25459 25459
1	25105476 684508 795729 864506 1897.372 2059.843 32768 0 1 16384 16384
14	25789984 717264 795729 933335 1897.372 2222.526 32768 0 0 0 0
0	26507248 684516 795729 933335 1897.372 2222.526 32768 0 13 31992 96222
1	27191764 684340 864509 933348 2059.853 2222.552 32768 0 1 16385 16385
1	27876104 685444 933348 1002162 2222.552 2383.946 32768 0 1 16384 16384
14	28561548 734177 933337 1071023 2222.532 2548.438 32768 0 0 0 0
0	29295725 701426 933337 1071023 2222.532 2548.438 32768 0 12 32159 97321
1	29997151 717213 1002162 1071030 2383.946 2548.443 32768 0 1 16384 16384
1	30714364 717110 1071030 1139807 2548.443 2712.142 32768 0 1 16383 16383
14	31431474 749946 1071025 1208532 2548.44 2874.792 32768 0 0 0 0
0	32181420 717200 1071025 1208532 2548.44 2874.792 32768 0 14 31149 90855
1	32898620 717289 1139810 1208538 2712.143 2874.807 32768 0 1 16385 16385
1	33615909 717210 1208538 1277394 2874.807 3037.781 32768 0 1 16383 16383
14	34333119 749951 1208533 1346158 2874.792 3201.601 32768 0 0 0 0
0	35083070 717212 1208533 1346158 2874.792 3201.601 32768 0 16 30873 93665
1	35800282 717097 1277397 1346163 3037.783 3201.606 32768 0 1 16384 16384
1	36517379 717238 1346166 1414937 3201.608 3363.612 32768 0 1 16385 16385
14	37234617 749975 1346166 1483682 3201.608 3528.544 32768 0 0 0 0
0	37984592 717230 1346166 1483682 3201.608 3528.544 32768 0 13 30961 91107
1	38701822 717251 1414937 1483684 3363.612 3528.551 32768 0 1 16383 16383
1	39419073 717315 1483685 1552566 3528.551 3694.358 32768 0 1 16384 16384
0	40136388 560322 1483685 1591370 3528.551 3787.776 25597 0 12 24641 74889
1	40696710 403214 1552571 1591369 3694.388 3787.776 18423 0 1 9212 9212
2	41099924 714477 795731 1591360 1897.388 3787.763 31573 16 20 630490 12591604
3	41814401 276918 795805 1591167 1897.611 3787.369 12804 0 1 6402 6402
4	42091319 714439 795737 1591364 1897.4 3787.766 31573 17 20 630562 12594370
5	42805758 276884 795740 1591313 1897.406 3787.673 12796 0 1 6398 6398
6	43082642 714344 795739 1591344 1897.403 3787.707 31572 16 20 630537 12593819
7	43796986 272352 795993 1591038 1898.041 3787.163 12596 0 1 6298 6298
8	44069338 714487 795746 1591346 1897.441 3787.707 31572 15 20 630431 12589767
9	44783825 276978 795814 1591304 1897.649 3787.666 12798 0 1 6399 6399
10	45060803 746157 795750 1591354 1897.455 3787.751 31572 15 20 630453 12590569
11	45806960 285014 795727 1591340 1897.344 3787.698 12592 0 1 6296 6296
12	46091974 746174 795754 1591358 1897.47 3787.761 31572 17 20 630621 12597009
13	46838148 276604 795741 1591365 1897.407 3787.773 12216 0 1 6108 6108
14	47114752 585896 1483685 1591370 3528.551 3787.776 25597 0 0 0 0
15	47700648 714477 795731 1591360 1897.388 3787.763 31573 0 1 25171 25171
16	48415125 714439 795737 1591364 1897.4 3787.766 31573 0 1 25175 25175
17	49129564 714367 795739 1591371 1897.403 3787.776 31573 0 1 25275 25275
18	49843931 714487 795746 1591346 1897.441 3787.707 31572 0 1 25171 25171
19	50558418 714585 795750 1591354 1897.455 3787.751 31572 0 1 25276 25276
20	51273003 714602 795754 1591358 1897.47 3787.761 31572 0 1 25465 25465
1	51987605 717251 1591372 1660109 3787.779 3951.838 32768 0 1 16384 16384
1	52704856 717370 1660110 1728988 3951.84 4115.699 32768 0 1 16384 16384
14	53422226 750069 1591376 1728991 3787.786 4115.702 32768 0 0 0 0
0	54172295 717311 1591376 1728991 3787.786 4115.702 32768 0 11 31580 92870
1	54889606 717238 1728993 1797857 4115.703 4279.917 32768 0 1 16384 16384
1	55606844 717340 1797858 1866711 4279.918 4445.065 32768 0 1 16384 16384
14	56324184 749982 1728992 1866713 4115.702 4445.07 32768 0 0 0 0
0	57074166 717260 1728992 1866713 4115.702 4445.07 32768 0 15 31584 97666
1	57791426 717215 1866714 1935547 4445.074 4609.795 32768 0 1 16384 16384
1	58508641 717202 1935549 2004307 4609.796 4774.351 32768 0 1 16384 16384
14	59225843 750023 1866721 2004312 4445.1 4774.361 32768 0 0 0 0
0	59975866 717302 1866721 2004312 4445.1 4774.361 32768 0 19 31140 95064
1	60693168 717273 2004308 2073148 4774.357 4936.671 32768 0 1 16384 16384
1	61410441 717256 2073149 2141990 4936.672 5099.282 32768 0 1 16384 16384
14	62127697 750085 2004313 2141993 4774.361 5099.284 32768 0 0 0 0
0	62877782 717354 2004313 2141993 4774.361 5099.284 32768 0 13 31991 97783
1	63595136 717161 2141994 2210855 5099.285 5264.605 32768 0 1 16384 16384
1	64312297 717087 2210857 2279541 5264.605 5428.375 32768 0 1 16384 16384
14	65029384 750023 2141997 2279544 5099.287 5428.376 32768 0 0 0 0
0	65779407 717293 2141997 2279544 5099.287 5428.376 32768 0 14 31746 96796
1	66496700 717180 2279547 2348289 5428.379 5592.492 32768 0 1 16384 16384
0	67213880 561054 2279546 2387054 5428.378 5683.884 25636 0 13 24137 68185
1	67774934 405089 2348292 2387054 5592.499 5683.884 18506 0 1 9253 9253
2	68180023 722668 1591385 2387029 3787.8 5683.806 31579 16 20 630657 12595801
3	68902691 279334 1591693 2387031 3788.658 5683.828 12760 0 1 6380 6380
4	69182025 722618 1591387 2387043 3787.801 5683.853 31579 17 20 630686 12596898
5	69904643 276202 1591400 2386939 3787.876 5683.597 12620 0 1 6310 6310
6	70180845 722861 1591371 2387045 3787.776 5683.854 31580 16 20 630665 12595761
7	70903706 275904 1591523 2386747 3788.181 5683.234 12606 0 1 6303 6303
8	71179610 722910 1591373 2387047 3787.779 5683.859 31580 16 20 630711 12597541
9	71902520 274456 1591606 2386969 3788.407 5683.661 12544 0 1 6272 6272
10	72176976 754418 1591381 2387049 3787.796 5683.862 31580 16 20 630727 12598141
11	72931394 288068 1591627 2387025 3788.448 5683.8 12588 0 1 6294 6294
12	73219462 754433 1591383 2387051 3787.796 5683.872 31580 17 20 630792 12600666
13	73973895 284692 1591473 2387052 3788.057 5683.876 12436 0 1 6218 6218
14	74258587 586698 2279546 2387056 5428.378 5683.887 25637 0 0 0 0
15	74845285 722668 1591385 2387029 3787.8 5683.806 31579 0 1 25200 25200
16	75567953 722618 1591387 2387043 3787.801 5683.853 31579 0 1 25269 25269
17	76290571 722838 1591391 2387045 3787.827 5683.854 31579 0 1 25276 25276
18	77013409 722910 1591373 2387047 3787.779 5683.859 31580 0 1 25308 25308
19	77736319 722838 1591381 2387049 3787.796 5683.862 31580 0 1 25286 25286
20	78459157 722853 1591383 2387051 3787.796 5683.872 31580 0 1 25362 25362
1	79182010 717364 2387058 2455899 5683.892 5848.637 32768 0 1 16384 16384
0	79899374 717334 2387056 2524805 5683.887 6014.29 32768 0 15 31324 94520
14	80616708 750063 2387059 2524808 5683.892 6014.293 32768 0 0 0 0
1	81366771 717325 2455901 2524809 5848.643 6014.294 32768 0 1 16384 16384
0	82084096 240653 2524808 2571007 6014.293 6125.203 10996 0 10 10188 28382
1	82324749 481284 2524811 2571006 6014.296 6125.203 21990 0 1 10995 10995
2	82806033 166983 2387060 2570989 5683.892 6125.174 7294 17 20 145648 2908596
3	82973016 64132 2387088 2570901 5683.949 6124.958 2928 0 1 1464 1464
4	83037148 166967 2387062 2570991 5683.893 6125.178 7294 17 20 145674 2909598
5	83204115 64986 2387222 2570963 5684.372 6125.115 2970 0 1 1485 1485
6	83269101 166974 2387064 2570999 5683.894 6125.189 7294 17 20 145635 2908133
7	83436075 66400 2387316 2570690 5684.568 6124.566 3032 0 1 1516 1516
8	83502475 166999 2387068 2571004 5683.896 6125.198 7294 17 20 145664 2909226
9	83669474 66080 2387107 2571002 5683.974 6125.194 3016 0 1 1508 1508
10	83735554 174236 2387074 2571008 5683.91 6125.203 7294 17 20 145674 2909620
11	83909790 67056 2387079 2570923 5683.919 6125.02 2930 0 1 1465 1465
12	83976846 174189 2387076 2570983 5683.91 6125.163 7293 17 20 145655 2909255
13	84151035 66932 2387136 2570868 5684.083 6124.881 2924 0 1 1462 1462
14	84217967 251623 2524815 2571007 6014.3 6125.203 10995 0 0 0 0
15	84469590 166983 2387060 2570989 5683.892 6125.174 7294 0 1 5829 5829
16	84636573 166967 2387062 2570991 5683.893 6125.178 7294 0 1 5809 5809
17	84803540 166974 2387064 2570999 5683.894 6125.189 7294 0 1 5778 5778
18	84970514 166999 2387068 2571004 5683.896 6125.198 7294 0 1 5786 5786
19	85137513 166942 2387074 2571008 5683.91 6125.203 7294 0 1 5829 5829
20	85304455 166896 2387076 2570983 5683.91 6125.163 7293 0 1 5830 5830

